<?xml version="1.0" encoding="UTF-8"?>

<!-- generated on 2025-08-05 01:29:55 by Eclipse SUMO GUI Version 1.21.0
<sumoConfiguration xmlns:xsi="http://www.w3.org/2001/XMLSchema-instance" xsi:noNamespaceSchemaLocation="http://sumo.dlr.de/xsd/sumoConfiguration.xsd">

    <input>
        <net-file value="network/gutian.xml"/>
        <route-files value="demand/no_control_demand_0.xml"/>
        <additional-files value="detector/addition.add.xml, vehicle_type_no_control/vtype.xml"/>
    </input>

    <output>
        <tripinfo-output value="output_pimaddpg_control/pimaddpg_control_tripinfo_0.xml"/>
    </output>

    <traci_server>
        <remote-port value="62832"/>
    </traci_server>

    <gui_only>
        <quit-on-end value="true"/>
        <start value="true"/>
    </gui_only>

</sumoConfiguration>
-->

<detector xmlns:xsi="http://www.w3.org/2001/XMLSchema-instance" xsi:noNamespaceSchemaLocation="http://sumo.dlr.de/xsd/det_e2_file.xsd">
   <interval begin="0.00" end="60.00" id="e4ramp_1" sampledSeconds="37.61" nVehEntered="6" nVehLeft="5" nVehSeen="6" meanSpeed="27.75" meanTimeLoss="0.13" meanOccupancy="2.41" maxOccupancy="8.38" meanMaxJamLengthInVehicles="0.00" meanMaxJamLengthInMeters="0.00" maxJamLengthInVehicles="0" maxJamLengthInMeters="0.00" jamLengthInVehiclesSum="0" jamLengthInMetersSum="0.00" meanHaltingDuration="0.00" maxHaltingDuration="0.00" haltingDurationSum="0.00" meanIntervalHaltingDuration="0.00" maxIntervalHaltingDuration="0.00" intervalHaltingDurationSum="0.00" startedHalts="0.00" meanVehicleNumber="0.73" maxVehicleNumber="2" />
   <interval begin="60.00" end="119.00" id="e4ramp_1" sampledSeconds="138.64" nVehEntered="8" nVehLeft="4" nVehSeen="9" meanSpeed="9.67" meanTimeLoss="10.16" meanOccupancy="8.06" maxOccupancy="16.76" meanMaxJamLengthInVehicles="0.73" meanMaxJamLengthInMeters="4.93" maxJamLengthInVehicles="4" maxJamLengthInMeters="33.79" jamLengthInVehiclesSum="43" jamLengthInMetersSum="291.01" meanHaltingDuration="10.75" maxHaltingDuration="23.00" haltingDurationSum="43.00" meanIntervalHaltingDuration="10.75" maxIntervalHaltingDuration="23.00" intervalHaltingDurationSum="43.00" startedHalts="5.00" meanVehicleNumber="2.46" maxVehicleNumber="5" />
</detector>
